LAMMPS data file. CGCMM style. atom_style atomic generated by VMD/TopoTools v1.7 on Sat Sep 05 00:41:27 +0530 2020
 2034 atoms
 0 bonds
 0 angles
 0 dihedrals
 0 impropers
 2 atom types
 0 bond types
 0 angle types
 0 dihedral types
 0 improper types
 -10.00000 85.00000  xlo xhi
 -10.00000 82.00000  ylo yhi
 -10.00000 10.00000  zlo zhi

# Pair Coeffs
#
# 1  C
# 2  Si

 Masses

 1 12.010700 # C
 2 28.085501 # Si

 Atoms # atomic

1 1 0.000000 0.000000 0.000000 # C
2 1 -0.709000 1.228020 0.000000 # C
3 1 1.418000 0.000000 0.000000 # C
4 1 2.127000 1.228020 0.000000 # C
5 1 4.254000 0.000000 0.000000 # C
6 1 3.545000 1.228020 0.000000 # C
7 1 5.672000 0.000000 0.000000 # C
8 1 6.381000 1.228020 0.000000 # C
9 1 8.508000 0.000000 0.000000 # C
10 1 7.799000 1.228020 0.000000 # C
11 1 9.926000 0.000000 0.000000 # C
12 1 10.635000 1.228020 0.000000 # C
13 1 12.762000 0.000000 0.000000 # C
14 1 12.053000 1.228020 0.000000 # C
15 1 14.180000 0.000000 0.000000 # C
16 1 14.889000 1.228020 0.000000 # C
17 1 17.016001 0.000000 0.000000 # C
18 1 16.306999 1.228020 0.000000 # C
19 1 18.434000 0.000000 0.000000 # C
20 1 19.143000 1.228020 0.000000 # C
21 1 21.270000 0.000000 0.000000 # C
22 1 20.561001 1.228020 0.000000 # C
23 1 22.688000 0.000000 0.000000 # C
24 1 23.396999 1.228020 0.000000 # C
25 1 25.524000 0.000000 0.000000 # C
26 1 24.815001 1.228020 0.000000 # C
27 1 26.941999 0.000000 0.000000 # C
28 1 27.650999 1.228020 0.000000 # C
29 1 29.778000 0.000000 0.000000 # C
30 1 29.069000 1.228020 0.000000 # C
31 1 31.195999 0.000000 0.000000 # C
32 1 31.905001 1.228020 0.000000 # C
33 1 34.032001 0.000000 0.000000 # C
34 1 33.323002 1.228020 0.000000 # C
35 1 35.450001 0.000000 0.000000 # C
36 1 36.159000 1.228020 0.000000 # C
37 1 38.285999 0.000000 0.000000 # C
38 1 37.577000 1.228020 0.000000 # C
39 1 39.703999 0.000000 0.000000 # C
40 1 40.412998 1.228020 0.000000 # C
41 1 42.540001 0.000000 0.000000 # C
42 1 41.831001 1.228020 0.000000 # C
43 1 43.958000 0.000000 0.000000 # C
44 1 44.667000 1.228020 0.000000 # C
45 1 46.793999 0.000000 0.000000 # C
46 1 46.084999 1.228020 0.000000 # C
47 1 48.212002 0.000000 0.000000 # C
48 1 48.921001 1.228020 0.000000 # C
49 1 51.048000 0.000000 0.000000 # C
50 1 50.339001 1.228020 0.000000 # C
51 1 52.466000 0.000000 0.000000 # C
52 1 53.174999 1.228020 0.000000 # C
53 1 55.301998 0.000000 0.000000 # C
54 1 54.592999 1.228020 0.000000 # C
55 1 56.720001 0.000000 0.000000 # C
56 1 57.429001 1.228020 0.000000 # C
57 1 59.556000 0.000000 0.000000 # C
58 1 58.847000 1.228020 0.000000 # C
59 1 60.973999 0.000000 0.000000 # C
60 1 61.682999 1.228020 0.000000 # C
61 1 63.810001 0.000000 0.000000 # C
62 1 63.101002 1.228020 0.000000 # C
63 1 65.227997 0.000000 0.000000 # C
64 1 65.936996 1.228020 0.000000 # C
65 1 68.064003 0.000000 0.000000 # C
66 1 67.355003 1.228020 0.000000 # C
67 1 69.482002 0.000000 0.000000 # C
68 1 70.191002 1.228020 0.000000 # C
69 1 0.000000 2.456050 0.000000 # C
70 1 -0.709000 3.684070 0.000000 # C
71 1 1.418000 2.456050 0.000000 # C
72 1 2.127000 3.684070 0.000000 # C
73 1 4.254000 2.456050 0.000000 # C
74 1 3.545000 3.684070 0.000000 # C
75 1 5.672000 2.456050 0.000000 # C
76 1 6.381000 3.684070 0.000000 # C
77 1 8.508000 2.456050 0.000000 # C
78 1 7.799000 3.684070 0.000000 # C
79 1 9.926000 2.456050 0.000000 # C
80 1 10.635000 3.684070 0.000000 # C
81 1 12.762000 2.456050 0.000000 # C
82 1 12.053000 3.684070 0.000000 # C
83 1 14.180000 2.456050 0.000000 # C
84 1 14.889000 3.684070 0.000000 # C
85 1 17.016001 2.456050 0.000000 # C
86 1 16.306999 3.684070 0.000000 # C
87 1 18.434000 2.456050 0.000000 # C
88 1 19.143000 3.684070 0.000000 # C
89 1 21.270000 2.456050 0.000000 # C
90 1 20.561001 3.684070 0.000000 # C
91 1 22.688000 2.456050 0.000000 # C
92 1 23.396999 3.684070 0.000000 # C
93 1 25.524000 2.456050 0.000000 # C
94 1 24.815001 3.684070 0.000000 # C
95 1 26.941999 2.456050 0.000000 # C
96 1 27.650999 3.684070 0.000000 # C
97 1 29.778000 2.456050 0.000000 # C
98 1 29.069000 3.684070 0.000000 # C
99 1 31.195999 2.456050 0.000000 # C
100 1 31.905001 3.684070 0.000000 # C
101 1 34.032001 2.456050 0.000000 # C
102 1 33.323002 3.684070 0.000000 # C
103 1 35.450001 2.456050 0.000000 # C
104 1 36.159000 3.684070 0.000000 # C
105 1 38.285999 2.456050 0.000000 # C
106 1 37.577000 3.684070 0.000000 # C
107 1 39.703999 2.456050 0.000000 # C
108 1 40.412998 3.684070 0.000000 # C
109 1 42.540001 2.456050 0.000000 # C
110 1 41.831001 3.684070 0.000000 # C
111 1 43.958000 2.456050 0.000000 # C
112 1 44.667000 3.684070 0.000000 # C
113 1 46.793999 2.456050 0.000000 # C
114 1 46.084999 3.684070 0.000000 # C
115 1 48.212002 2.456050 0.000000 # C
116 1 48.921001 3.684070 0.000000 # C
117 1 51.048000 2.456050 0.000000 # C
118 1 50.339001 3.684070 0.000000 # C
119 1 52.466000 2.456050 0.000000 # C
120 1 53.174999 3.684070 0.000000 # C
121 1 55.301998 2.456050 0.000000 # C
122 1 54.592999 3.684070 0.000000 # C
123 1 56.720001 2.456050 0.000000 # C
124 1 57.429001 3.684070 0.000000 # C
125 1 59.556000 2.456050 0.000000 # C
126 1 58.847000 3.684070 0.000000 # C
127 1 60.973999 2.456050 0.000000 # C
128 1 61.682999 3.684070 0.000000 # C
129 1 63.810001 2.456050 0.000000 # C
130 1 63.101002 3.684070 0.000000 # C
131 1 65.227997 2.456050 0.000000 # C
132 1 65.936996 3.684070 0.000000 # C
133 1 68.064003 2.456050 0.000000 # C
134 1 67.355003 3.684070 0.000000 # C
135 1 69.482002 2.456050 0.000000 # C
136 1 70.191002 3.684070 0.000000 # C
137 1 0.000000 4.912100 0.000000 # C
138 1 -0.709000 6.140120 0.000000 # C
139 1 1.418000 4.912100 0.000000 # C
140 1 2.127000 6.140120 0.000000 # C
141 1 4.254000 4.912100 0.000000 # C
142 1 3.545000 6.140120 0.000000 # C
143 1 5.672000 4.912100 0.000000 # C
144 1 6.381000 6.140120 0.000000 # C
145 1 8.508000 4.912100 0.000000 # C
146 1 7.799000 6.140120 0.000000 # C
147 1 9.926000 4.912100 0.000000 # C
148 1 10.635000 6.140120 0.000000 # C
149 1 12.762000 4.912100 0.000000 # C
150 1 12.053000 6.140120 0.000000 # C
151 1 14.180000 4.912100 0.000000 # C
152 1 14.889000 6.140120 0.000000 # C
153 1 17.016001 4.912100 0.000000 # C
154 1 16.306999 6.140120 0.000000 # C
155 1 18.434000 4.912100 0.000000 # C
156 1 19.143000 6.140120 0.000000 # C
157 1 21.270000 4.912100 0.000000 # C
158 1 20.561001 6.140120 0.000000 # C
159 1 22.688000 4.912100 0.000000 # C
160 1 23.396999 6.140120 0.000000 # C
161 1 25.524000 4.912100 0.000000 # C
162 1 24.815001 6.140120 0.000000 # C
163 1 26.941999 4.912100 0.000000 # C
164 1 27.650999 6.140120 0.000000 # C
165 1 29.778000 4.912100 0.000000 # C
166 1 29.069000 6.140120 0.000000 # C
167 1 31.195999 4.912100 0.000000 # C
168 1 31.905001 6.140120 0.000000 # C
169 1 34.032001 4.912100 0.000000 # C
170 1 33.323002 6.140120 0.000000 # C
171 1 35.450001 4.912100 0.000000 # C
172 1 36.159000 6.140120 0.000000 # C
173 1 38.285999 4.912100 0.000000 # C
174 1 37.577000 6.140120 0.000000 # C
175 1 39.703999 4.912100 0.000000 # C
176 1 40.412998 6.140120 0.000000 # C
177 1 42.540001 4.912100 0.000000 # C
178 1 41.831001 6.140120 0.000000 # C
179 1 43.958000 4.912100 0.000000 # C
180 1 44.667000 6.140120 0.000000 # C
181 1 46.793999 4.912100 0.000000 # C
182 1 46.084999 6.140120 0.000000 # C
183 1 48.212002 4.912100 0.000000 # C
184 1 48.921001 6.140120 0.000000 # C
185 1 51.048000 4.912100 0.000000 # C
186 1 50.339001 6.140120 0.000000 # C
187 1 52.466000 4.912100 0.000000 # C
188 1 53.174999 6.140120 0.000000 # C
189 1 55.301998 4.912100 0.000000 # C
190 1 54.592999 6.140120 0.000000 # C
191 1 56.720001 4.912100 0.000000 # C
192 1 57.429001 6.140120 0.000000 # C
193 1 59.556000 4.912100 0.000000 # C
194 1 58.847000 6.140120 0.000000 # C
195 1 60.973999 4.912100 0.000000 # C
196 1 61.682999 6.140120 0.000000 # C
197 1 63.810001 4.912100 0.000000 # C
198 1 63.101002 6.140120 0.000000 # C
199 1 65.227997 4.912100 0.000000 # C
200 1 65.936996 6.140120 0.000000 # C
201 1 68.064003 4.912100 0.000000 # C
202 1 67.355003 6.140120 0.000000 # C
203 1 69.482002 4.912100 0.000000 # C
204 1 70.191002 6.140120 0.000000 # C
205 1 0.000000 7.368140 0.000000 # C
206 1 -0.709000 8.596170 0.000000 # C
207 1 1.418000 7.368140 0.000000 # C
208 1 2.127000 8.596170 0.000000 # C
209 1 4.254000 7.368140 0.000000 # C
210 1 3.545000 8.596170 0.000000 # C
211 1 5.672000 7.368140 0.000000 # C
212 1 6.381000 8.596170 0.000000 # C
213 1 8.508000 7.368140 0.000000 # C
214 1 7.799000 8.596170 0.000000 # C
215 1 9.926000 7.368140 0.000000 # C
216 1 10.635000 8.596170 0.000000 # C
217 1 12.762000 7.368140 0.000000 # C
218 1 12.053000 8.596170 0.000000 # C
219 1 14.180000 7.368140 0.000000 # C
220 1 14.889000 8.596170 0.000000 # C
221 1 17.016001 7.368140 0.000000 # C
222 1 16.306999 8.596170 0.000000 # C
223 1 18.434000 7.368140 0.000000 # C
224 1 19.143000 8.596170 0.000000 # C
225 1 21.270000 7.368140 0.000000 # C
226 1 20.561001 8.596170 0.000000 # C
227 1 22.688000 7.368140 0.000000 # C
228 1 23.396999 8.596170 0.000000 # C
229 1 25.524000 7.368140 0.000000 # C
230 1 24.815001 8.596170 0.000000 # C
231 1 26.941999 7.368140 0.000000 # C
232 1 27.650999 8.596170 0.000000 # C
233 1 29.778000 7.368140 0.000000 # C
234 1 29.069000 8.596170 0.000000 # C
235 1 31.195999 7.368140 0.000000 # C
236 1 31.905001 8.596170 0.000000 # C
237 1 34.032001 7.368140 0.000000 # C
238 1 33.323002 8.596170 0.000000 # C
239 1 35.450001 7.368140 0.000000 # C
240 1 36.159000 8.596170 0.000000 # C
241 1 38.285999 7.368140 0.000000 # C
242 1 37.577000 8.596170 0.000000 # C
243 1 39.703999 7.368140 0.000000 # C
244 1 40.412998 8.596170 0.000000 # C
245 1 42.540001 7.368140 0.000000 # C
246 1 41.831001 8.596170 0.000000 # C
247 1 43.958000 7.368140 0.000000 # C
248 1 44.667000 8.596170 0.000000 # C
249 1 46.793999 7.368140 0.000000 # C
250 1 46.084999 8.596170 0.000000 # C
251 1 48.212002 7.368140 0.000000 # C
252 1 48.921001 8.596170 0.000000 # C
253 1 51.048000 7.368140 0.000000 # C
254 1 50.339001 8.596170 0.000000 # C
255 1 52.466000 7.368140 0.000000 # C
256 1 53.174999 8.596170 0.000000 # C
257 1 55.301998 7.368140 0.000000 # C
258 1 54.592999 8.596170 0.000000 # C
259 1 56.720001 7.368140 0.000000 # C
260 1 57.429001 8.596170 0.000000 # C
261 1 59.556000 7.368140 0.000000 # C
262 1 58.847000 8.596170 0.000000 # C
263 1 60.973999 7.368140 0.000000 # C
264 1 61.682999 8.596170 0.000000 # C
265 1 63.810001 7.368140 0.000000 # C
266 1 63.101002 8.596170 0.000000 # C
267 1 65.227997 7.368140 0.000000 # C
268 1 65.936996 8.596170 0.000000 # C
269 1 68.064003 7.368140 0.000000 # C
270 1 67.355003 8.596170 0.000000 # C
271 1 69.482002 7.368140 0.000000 # C
272 1 70.191002 8.596170 0.000000 # C
273 1 0.000000 9.824190 0.000000 # C
274 1 -0.709000 11.052220 0.000000 # C
275 1 1.418000 9.824190 0.000000 # C
276 1 2.127000 11.052220 0.000000 # C
277 1 4.254000 9.824190 0.000000 # C
278 1 3.545000 11.052220 0.000000 # C
279 1 5.672000 9.824190 0.000000 # C
280 1 6.381000 11.052220 0.000000 # C
281 1 8.508000 9.824190 0.000000 # C
282 1 7.799000 11.052220 0.000000 # C
283 1 9.926000 9.824190 0.000000 # C
284 1 10.635000 11.052220 0.000000 # C
285 1 12.762000 9.824190 0.000000 # C
286 1 12.053000 11.052220 0.000000 # C
287 2 14.180000 9.824190 0.000000 # Si
288 1 14.889000 11.052220 0.000000 # C
289 1 17.016001 9.824190 0.000000 # C
290 1 16.306999 11.052220 0.000000 # C
291 1 18.434000 9.824190 0.000000 # C
292 1 19.143000 11.052220 0.000000 # C
293 1 21.270000 9.824190 0.000000 # C
294 1 20.561001 11.052220 0.000000 # C
295 1 22.688000 9.824190 0.000000 # C
296 1 23.396999 11.052220 0.000000 # C
297 1 25.524000 9.824190 0.000000 # C
298 1 24.815001 11.052220 0.000000 # C
299 1 26.941999 9.824190 0.000000 # C
300 1 27.650999 11.052220 0.000000 # C
301 1 29.778000 9.824190 0.000000 # C
302 1 29.069000 11.052220 0.000000 # C
303 1 31.195999 9.824190 0.000000 # C
304 1 31.905001 11.052220 0.000000 # C
305 1 33.323002 11.052220 0.000000 # C
306 1 35.450001 9.824190 0.000000 # C
307 1 36.159000 11.052220 0.000000 # C
308 1 38.285999 9.824190 0.000000 # C
309 1 37.577000 11.052220 0.000000 # C
310 1 39.703999 9.824190 0.000000 # C
311 1 40.412998 11.052220 0.000000 # C
312 1 42.540001 9.824190 0.000000 # C
313 1 41.831001 11.052220 0.000000 # C
314 1 43.958000 9.824190 0.000000 # C
315 1 44.667000 11.052220 0.000000 # C
316 1 46.793999 9.824190 0.000000 # C
317 1 46.084999 11.052220 0.000000 # C
318 1 48.212002 9.824190 0.000000 # C
319 1 48.921001 11.052220 0.000000 # C
320 1 51.048000 9.824190 0.000000 # C
321 1 50.339001 11.052220 0.000000 # C
322 1 52.466000 9.824190 0.000000 # C
323 1 53.174999 11.052220 0.000000 # C
324 1 55.301998 9.824190 0.000000 # C
325 1 54.592999 11.052220 0.000000 # C
326 1 56.720001 9.824190 0.000000 # C
327 1 57.429001 11.052220 0.000000 # C
328 1 59.556000 9.824190 0.000000 # C
329 1 58.847000 11.052220 0.000000 # C
330 1 60.973999 9.824190 0.000000 # C
331 1 61.682999 11.052220 0.000000 # C
332 1 63.810001 9.824190 0.000000 # C
333 1 63.101002 11.052220 0.000000 # C
334 1 65.227997 9.824190 0.000000 # C
335 1 65.936996 11.052220 0.000000 # C
336 1 68.064003 9.824190 0.000000 # C
337 1 67.355003 11.052220 0.000000 # C
338 1 69.482002 9.824190 0.000000 # C
339 1 70.191002 11.052220 0.000000 # C
340 1 0.000000 12.280240 0.000000 # C
341 1 -0.709000 13.508270 0.000000 # C
342 1 1.418000 12.280240 0.000000 # C
343 1 2.127000 13.508270 0.000000 # C
344 1 4.254000 12.280240 0.000000 # C
345 1 3.545000 13.508270 0.000000 # C
346 1 5.672000 12.280240 0.000000 # C
347 1 6.381000 13.508270 0.000000 # C
348 1 8.508000 12.280240 0.000000 # C
349 1 7.799000 13.508270 0.000000 # C
350 1 9.926000 12.280240 0.000000 # C
351 1 10.635000 13.508270 0.000000 # C
352 1 12.762000 12.280240 0.000000 # C
353 1 12.053000 13.508270 0.000000 # C
354 1 14.180000 12.280240 0.000000 # C
355 1 14.889000 13.508270 0.000000 # C
356 1 17.016001 12.280240 0.000000 # C
357 1 16.306999 13.508270 0.000000 # C
358 1 18.434000 12.280240 0.000000 # C
359 1 19.143000 13.508270 0.000000 # C
360 1 21.270000 12.280240 0.000000 # C
361 1 20.561001 13.508270 0.000000 # C
362 1 22.688000 12.280240 0.000000 # C
363 1 23.396999 13.508270 0.000000 # C
364 1 25.524000 12.280240 0.000000 # C
365 1 24.815001 13.508270 0.000000 # C
366 1 26.941999 12.280240 0.000000 # C
367 1 27.650999 13.508270 0.000000 # C
368 1 29.778000 12.280240 0.000000 # C
369 1 29.069000 13.508270 0.000000 # C
370 1 31.195999 12.280240 0.000000 # C
371 1 31.905001 13.508270 0.000000 # C
372 1 34.032001 12.280240 0.000000 # C
373 1 33.323002 13.508270 0.000000 # C
374 1 35.450001 12.280240 0.000000 # C
375 1 36.159000 13.508270 0.000000 # C
376 1 38.285999 12.280240 0.000000 # C
377 1 37.577000 13.508270 0.000000 # C
378 1 39.703999 12.280240 0.000000 # C
379 1 40.412998 13.508270 0.000000 # C
380 1 42.540001 12.280240 0.000000 # C
381 1 41.831001 13.508270 0.000000 # C
382 1 43.958000 12.280240 0.000000 # C
383 1 44.667000 13.508270 0.000000 # C
384 1 46.793999 12.280240 0.000000 # C
385 2 46.084999 13.508270 0.000000 # Si
386 1 48.212002 12.280240 0.000000 # C
387 1 48.921001 13.508270 0.000000 # C
388 1 51.048000 12.280240 0.000000 # C
389 1 50.339001 13.508270 0.000000 # C
390 1 52.466000 12.280240 0.000000 # C
391 1 53.174999 13.508270 0.000000 # C
392 1 55.301998 12.280240 0.000000 # C
393 1 54.592999 13.508270 0.000000 # C
394 1 56.720001 12.280240 0.000000 # C
395 1 57.429001 13.508270 0.000000 # C
396 1 59.556000 12.280240 0.000000 # C
397 1 58.847000 13.508270 0.000000 # C
398 1 60.973999 12.280240 0.000000 # C
399 1 61.682999 13.508270 0.000000 # C
400 1 63.810001 12.280240 0.000000 # C
401 1 63.101002 13.508270 0.000000 # C
402 1 65.227997 12.280240 0.000000 # C
403 1 65.936996 13.508270 0.000000 # C
404 1 68.064003 12.280240 0.000000 # C
405 1 67.355003 13.508270 0.000000 # C
406 1 69.482002 12.280240 0.000000 # C
407 1 70.191002 13.508270 0.000000 # C
408 1 0.000000 14.736290 0.000000 # C
409 1 -0.709000 15.964310 0.000000 # C
410 1 1.418000 14.736290 0.000000 # C
411 1 2.127000 15.964310 0.000000 # C
412 1 4.254000 14.736290 0.000000 # C
413 1 3.545000 15.964310 0.000000 # C
414 1 5.672000 14.736290 0.000000 # C
415 1 6.381000 15.964310 0.000000 # C
416 2 8.508000 14.736290 0.000000 # Si
417 1 7.799000 15.964310 0.000000 # C
418 1 9.926000 14.736290 0.000000 # C
419 1 10.635000 15.964310 0.000000 # C
420 1 12.762000 14.736290 0.000000 # C
421 1 12.053000 15.964310 0.000000 # C
422 1 14.180000 14.736290 0.000000 # C
423 1 14.889000 15.964310 0.000000 # C
424 1 17.016001 14.736290 0.000000 # C
425 1 16.306999 15.964310 0.000000 # C
426 1 18.434000 14.736290 0.000000 # C
427 1 19.143000 15.964310 0.000000 # C
428 1 21.270000 14.736290 0.000000 # C
429 1 20.561001 15.964310 0.000000 # C
430 1 22.688000 14.736290 0.000000 # C
431 1 23.396999 15.964310 0.000000 # C
432 1 25.524000 14.736290 0.000000 # C
433 1 24.815001 15.964310 0.000000 # C
434 1 26.941999 14.736290 0.000000 # C
435 1 27.650999 15.964310 0.000000 # C
436 1 29.778000 14.736290 0.000000 # C
437 1 29.069000 15.964310 0.000000 # C
438 1 31.195999 14.736290 0.000000 # C
439 1 31.905001 15.964310 0.000000 # C
440 1 34.032001 14.736290 0.000000 # C
441 1 33.323002 15.964310 0.000000 # C
442 1 35.450001 14.736290 0.000000 # C
443 1 36.159000 15.964310 0.000000 # C
444 1 38.285999 14.736290 0.000000 # C
445 1 37.577000 15.964310 0.000000 # C
446 1 39.703999 14.736290 0.000000 # C
447 1 40.412998 15.964310 0.000000 # C
448 1 42.540001 14.736290 0.000000 # C
449 1 41.831001 15.964310 0.000000 # C
450 1 43.958000 14.736290 0.000000 # C
451 1 44.667000 15.964310 0.000000 # C
452 1 46.793999 14.736290 0.000000 # C
453 1 46.084999 15.964310 0.000000 # C
454 1 48.212002 14.736290 0.000000 # C
455 1 48.921001 15.964310 0.000000 # C
456 1 51.048000 14.736290 0.000000 # C
457 1 50.339001 15.964310 0.000000 # C
458 1 52.466000 14.736290 0.000000 # C
459 1 53.174999 15.964310 0.000000 # C
460 1 55.301998 14.736290 0.000000 # C
461 1 54.592999 15.964310 0.000000 # C
462 1 56.720001 14.736290 0.000000 # C
463 1 57.429001 15.964310 0.000000 # C
464 1 59.556000 14.736290 0.000000 # C
465 1 58.847000 15.964310 0.000000 # C
466 1 60.973999 14.736290 0.000000 # C
467 1 61.682999 15.964310 0.000000 # C
468 1 63.810001 14.736290 0.000000 # C
469 1 63.101002 15.964310 0.000000 # C
470 1 65.227997 14.736290 0.000000 # C
471 1 65.936996 15.964310 0.000000 # C
472 1 68.064003 14.736290 0.000000 # C
473 1 67.355003 15.964310 0.000000 # C
474 1 69.482002 14.736290 0.000000 # C
475 1 70.191002 15.964310 0.000000 # C
476 1 0.000000 17.192341 0.000000 # C
477 1 -0.709000 18.420361 0.000000 # C
478 1 1.418000 17.192341 0.000000 # C
479 1 2.127000 18.420361 0.000000 # C
480 1 4.254000 17.192341 0.000000 # C
481 1 3.545000 18.420361 0.000000 # C
482 1 5.672000 17.192341 0.000000 # C
483 1 6.381000 18.420361 0.000000 # C
484 1 8.508000 17.192341 0.000000 # C
485 1 7.799000 18.420361 0.000000 # C
486 1 9.926000 17.192341 0.000000 # C
487 1 10.635000 18.420361 0.000000 # C
488 1 12.762000 17.192341 0.000000 # C
489 1 12.053000 18.420361 0.000000 # C
490 1 14.180000 17.192341 0.000000 # C
491 1 14.889000 18.420361 0.000000 # C
492 1 17.016001 17.192341 0.000000 # C
493 1 16.306999 18.420361 0.000000 # C
494 1 18.434000 17.192341 0.000000 # C
495 1 19.143000 18.420361 0.000000 # C
496 1 21.270000 17.192341 0.000000 # C
497 1 20.561001 18.420361 0.000000 # C
498 1 22.688000 17.192341 0.000000 # C
499 1 23.396999 18.420361 0.000000 # C
500 1 25.524000 17.192341 0.000000 # C
501 1 24.815001 18.420361 0.000000 # C
502 1 26.941999 17.192341 0.000000 # C
503 1 27.650999 18.420361 0.000000 # C
504 1 29.778000 17.192341 0.000000 # C
505 1 29.069000 18.420361 0.000000 # C
506 1 31.195999 17.192341 0.000000 # C
507 1 31.905001 18.420361 0.000000 # C
508 1 34.032001 17.192341 0.000000 # C
509 1 33.323002 18.420361 0.000000 # C
510 1 35.450001 17.192341 0.000000 # C
511 1 36.159000 18.420361 0.000000 # C
512 1 38.285999 17.192341 0.000000 # C
513 1 37.577000 18.420361 0.000000 # C
514 1 39.703999 17.192341 0.000000 # C
515 1 40.412998 18.420361 0.000000 # C
516 1 42.540001 17.192341 0.000000 # C
517 1 41.831001 18.420361 0.000000 # C
518 1 43.958000 17.192341 0.000000 # C
519 1 44.667000 18.420361 0.000000 # C
520 1 46.793999 17.192341 0.000000 # C
521 1 46.084999 18.420361 0.000000 # C
522 1 48.212002 17.192341 0.000000 # C
523 1 48.921001 18.420361 0.000000 # C
524 1 51.048000 17.192341 0.000000 # C
525 1 50.339001 18.420361 0.000000 # C
526 1 52.466000 17.192341 0.000000 # C
527 1 53.174999 18.420361 0.000000 # C
528 1 55.301998 17.192341 0.000000 # C
529 1 54.592999 18.420361 0.000000 # C
530 1 56.720001 17.192341 0.000000 # C
531 1 57.429001 18.420361 0.000000 # C
532 1 59.556000 17.192341 0.000000 # C
533 1 58.847000 18.420361 0.000000 # C
534 1 60.973999 17.192341 0.000000 # C
535 1 61.682999 18.420361 0.000000 # C
536 1 63.810001 17.192341 0.000000 # C
537 1 63.101002 18.420361 0.000000 # C
538 1 65.227997 17.192341 0.000000 # C
539 1 65.936996 18.420361 0.000000 # C
540 1 68.064003 17.192341 0.000000 # C
541 1 67.355003 18.420361 0.000000 # C
542 1 69.482002 17.192341 0.000000 # C
543 1 70.191002 18.420361 0.000000 # C
544 1 0.000000 19.648380 0.000000 # C
545 1 -0.709000 20.876410 0.000000 # C
546 1 1.418000 19.648380 0.000000 # C
547 1 2.127000 20.876410 0.000000 # C
548 1 4.254000 19.648380 0.000000 # C
549 1 3.545000 20.876410 0.000000 # C
550 1 5.672000 19.648380 0.000000 # C
551 1 6.381000 20.876410 0.000000 # C
552 1 8.508000 19.648380 0.000000 # C
553 1 7.799000 20.876410 0.000000 # C
554 1 9.926000 19.648380 0.000000 # C
555 1 10.635000 20.876410 0.000000 # C
556 1 12.762000 19.648380 0.000000 # C
557 1 12.053000 20.876410 0.000000 # C
558 1 14.180000 19.648380 0.000000 # C
559 2 14.889000 20.876410 0.000000 # Si
560 1 17.016001 19.648380 0.000000 # C
561 1 16.306999 20.876410 0.000000 # C
562 1 18.434000 19.648380 0.000000 # C
563 1 19.143000 20.876410 0.000000 # C
564 1 21.270000 19.648380 0.000000 # C
565 1 20.561001 20.876410 0.000000 # C
566 1 22.688000 19.648380 0.000000 # C
567 1 23.396999 20.876410 0.000000 # C
568 1 25.524000 19.648380 0.000000 # C
569 1 24.815001 20.876410 0.000000 # C
570 1 26.941999 19.648380 0.000000 # C
571 1 27.650999 20.876410 0.000000 # C
572 1 29.778000 19.648380 0.000000 # C
573 1 29.069000 20.876410 0.000000 # C
574 1 31.195999 19.648380 0.000000 # C
575 1 31.905001 20.876410 0.000000 # C
576 1 34.032001 19.648380 0.000000 # C
577 1 33.323002 20.876410 0.000000 # C
578 1 35.450001 19.648380 0.000000 # C
579 1 36.159000 20.876410 0.000000 # C
580 1 38.285999 19.648380 0.000000 # C
581 1 37.577000 20.876410 0.000000 # C
582 1 39.703999 19.648380 0.000000 # C
583 1 40.412998 20.876410 0.000000 # C
584 1 42.540001 19.648380 0.000000 # C
585 1 41.831001 20.876410 0.000000 # C
586 1 43.958000 19.648380 0.000000 # C
587 1 44.667000 20.876410 0.000000 # C
588 1 46.793999 19.648380 0.000000 # C
589 1 46.084999 20.876410 0.000000 # C
590 1 48.212002 19.648380 0.000000 # C
591 1 48.921001 20.876410 0.000000 # C
592 1 51.048000 19.648380 0.000000 # C
593 1 50.339001 20.876410 0.000000 # C
594 1 52.466000 19.648380 0.000000 # C
595 1 53.174999 20.876410 0.000000 # C
596 1 55.301998 19.648380 0.000000 # C
597 1 54.592999 20.876410 0.000000 # C
598 1 56.720001 19.648380 0.000000 # C
599 1 57.429001 20.876410 0.000000 # C
600 1 59.556000 19.648380 0.000000 # C
601 1 58.847000 20.876410 0.000000 # C
602 1 60.973999 19.648380 0.000000 # C
603 1 61.682999 20.876410 0.000000 # C
604 1 63.810001 19.648380 0.000000 # C
605 1 63.101002 20.876410 0.000000 # C
606 1 65.227997 19.648380 0.000000 # C
607 1 65.936996 20.876410 0.000000 # C
608 1 68.064003 19.648380 0.000000 # C
609 1 67.355003 20.876410 0.000000 # C
610 1 69.482002 19.648380 0.000000 # C
611 1 70.191002 20.876410 0.000000 # C
612 1 0.000000 22.104429 0.000000 # C
613 1 -0.709000 23.332460 0.000000 # C
614 1 1.418000 22.104429 0.000000 # C
615 1 2.127000 23.332460 0.000000 # C
616 1 4.254000 22.104429 0.000000 # C
617 1 3.545000 23.332460 0.000000 # C
618 1 5.672000 22.104429 0.000000 # C
619 1 6.381000 23.332460 0.000000 # C
620 1 8.508000 22.104429 0.000000 # C
621 1 7.799000 23.332460 0.000000 # C
622 1 9.926000 22.104429 0.000000 # C
623 1 10.635000 23.332460 0.000000 # C
624 1 12.762000 22.104429 0.000000 # C
625 1 12.053000 23.332460 0.000000 # C
626 1 14.180000 22.104429 0.000000 # C
627 1 14.889000 23.332460 0.000000 # C
628 1 17.016001 22.104429 0.000000 # C
629 1 16.306999 23.332460 0.000000 # C
630 1 18.434000 22.104429 0.000000 # C
631 1 19.143000 23.332460 0.000000 # C
632 1 21.270000 22.104429 0.000000 # C
633 1 20.561001 23.332460 0.000000 # C
634 1 22.688000 22.104429 0.000000 # C
635 1 23.396999 23.332460 0.000000 # C
636 1 25.524000 22.104429 0.000000 # C
637 2 24.815001 23.332460 0.000000 # Si
638 1 26.941999 22.104429 0.000000 # C
639 1 27.650999 23.332460 0.000000 # C
640 1 29.778000 22.104429 0.000000 # C
641 1 29.069000 23.332460 0.000000 # C
642 1 31.195999 22.104429 0.000000 # C
643 1 31.905001 23.332460 0.000000 # C
644 1 34.032001 22.104429 0.000000 # C
645 1 33.323002 23.332460 0.000000 # C
646 1 35.450001 22.104429 0.000000 # C
647 1 36.159000 23.332460 0.000000 # C
648 1 38.285999 22.104429 0.000000 # C
649 1 37.577000 23.332460 0.000000 # C
650 1 39.703999 22.104429 0.000000 # C
651 1 40.412998 23.332460 0.000000 # C
652 1 42.540001 22.104429 0.000000 # C
653 1 41.831001 23.332460 0.000000 # C
654 1 43.958000 22.104429 0.000000 # C
655 1 44.667000 23.332460 0.000000 # C
656 1 46.793999 22.104429 0.000000 # C
657 1 46.084999 23.332460 0.000000 # C
658 1 48.212002 22.104429 0.000000 # C
659 1 48.921001 23.332460 0.000000 # C
660 1 51.048000 22.104429 0.000000 # C
661 1 50.339001 23.332460 0.000000 # C
662 1 52.466000 22.104429 0.000000 # C
663 1 53.174999 23.332460 0.000000 # C
664 1 55.301998 22.104429 0.000000 # C
665 1 54.592999 23.332460 0.000000 # C
666 1 56.720001 22.104429 0.000000 # C
667 1 57.429001 23.332460 0.000000 # C
668 1 59.556000 22.104429 0.000000 # C
669 1 58.847000 23.332460 0.000000 # C
670 1 60.973999 22.104429 0.000000 # C
671 1 61.682999 23.332460 0.000000 # C
672 1 63.810001 22.104429 0.000000 # C
673 1 63.101002 23.332460 0.000000 # C
674 1 65.227997 22.104429 0.000000 # C
675 1 65.936996 23.332460 0.000000 # C
676 1 68.064003 22.104429 0.000000 # C
677 1 67.355003 23.332460 0.000000 # C
678 1 69.482002 22.104429 0.000000 # C
679 1 70.191002 23.332460 0.000000 # C
680 1 0.000000 24.560480 0.000000 # C
681 1 -0.709000 25.788500 0.000000 # C
682 1 1.418000 24.560480 0.000000 # C
683 1 2.127000 25.788500 0.000000 # C
684 1 4.254000 24.560480 0.000000 # C
685 1 3.545000 25.788500 0.000000 # C
686 1 5.672000 24.560480 0.000000 # C
687 1 6.381000 25.788500 0.000000 # C
688 1 8.508000 24.560480 0.000000 # C
689 1 7.799000 25.788500 0.000000 # C
690 1 9.926000 24.560480 0.000000 # C
691 1 10.635000 25.788500 0.000000 # C
692 1 12.762000 24.560480 0.000000 # C
693 1 12.053000 25.788500 0.000000 # C
694 1 14.180000 24.560480 0.000000 # C
695 1 14.889000 25.788500 0.000000 # C
696 1 17.016001 24.560480 0.000000 # C
697 1 16.306999 25.788500 0.000000 # C
698 1 18.434000 24.560480 0.000000 # C
699 1 19.143000 25.788500 0.000000 # C
700 1 21.270000 24.560480 0.000000 # C
701 1 20.561001 25.788500 0.000000 # C
702 1 22.688000 24.560480 0.000000 # C
703 1 23.396999 25.788500 0.000000 # C
704 1 25.524000 24.560480 0.000000 # C
705 1 24.815001 25.788500 0.000000 # C
706 1 26.941999 24.560480 0.000000 # C
707 1 27.650999 25.788500 0.000000 # C
708 1 29.778000 24.560480 0.000000 # C
709 1 29.069000 25.788500 0.000000 # C
710 1 31.195999 24.560480 0.000000 # C
711 1 31.905001 25.788500 0.000000 # C
712 1 34.032001 24.560480 0.000000 # C
713 1 33.323002 25.788500 0.000000 # C
714 1 35.450001 24.560480 0.000000 # C
715 1 36.159000 25.788500 0.000000 # C
716 1 38.285999 24.560480 0.000000 # C
717 1 37.577000 25.788500 0.000000 # C
718 1 39.703999 24.560480 0.000000 # C
719 1 40.412998 25.788500 0.000000 # C
720 1 42.540001 24.560480 0.000000 # C
721 1 41.831001 25.788500 0.000000 # C
722 1 43.958000 24.560480 0.000000 # C
723 1 44.667000 25.788500 0.000000 # C
724 1 46.793999 24.560480 0.000000 # C
725 1 46.084999 25.788500 0.000000 # C
726 1 48.212002 24.560480 0.000000 # C
727 1 48.921001 25.788500 0.000000 # C
728 1 51.048000 24.560480 0.000000 # C
729 1 50.339001 25.788500 0.000000 # C
730 1 52.466000 24.560480 0.000000 # C
731 1 53.174999 25.788500 0.000000 # C
732 1 55.301998 24.560480 0.000000 # C
733 1 54.592999 25.788500 0.000000 # C
734 2 56.720001 24.560480 0.000000 # Si
735 1 57.429001 25.788500 0.000000 # C
736 1 59.556000 24.560480 0.000000 # C
737 1 58.847000 25.788500 0.000000 # C
738 1 60.973999 24.560480 0.000000 # C
739 1 61.682999 25.788500 0.000000 # C
740 1 63.810001 24.560480 0.000000 # C
741 1 63.101002 25.788500 0.000000 # C
742 1 65.227997 24.560480 0.000000 # C
743 1 65.936996 25.788500 0.000000 # C
744 1 68.064003 24.560480 0.000000 # C
745 1 67.355003 25.788500 0.000000 # C
746 1 69.482002 24.560480 0.000000 # C
747 1 70.191002 25.788500 0.000000 # C
748 1 0.000000 27.016529 0.000000 # C
749 1 -0.709000 28.244551 0.000000 # C
750 1 1.418000 27.016529 0.000000 # C
751 1 2.127000 28.244551 0.000000 # C