LAMMPS data file. CGCMM style. atom_style atomic generated by VMD/TopoTools v1.7 on Wed Jul 07 15:57:42 +0100 2021
 32897 atoms
 0 bonds
 0 angles
 0 dihedrals
 0 impropers
 3 atom types
 0 bond types
 0 angle types
 0 dihedral types
 0 improper types
 -50.00000 250.00000  xlo xhi
 -50.00000 250.00000  ylo yhi
 -500.00000 500.00000  zlo zhi

# Pair Coeffs
#
# 1  C

 Masses

 1 12.010700 # C
 2 12.010700 # C
 3 12.010700 # C

 Atoms # atomic

1	1	0	0	0	#	C
2	1	-0.709	1.228024	0	#	C
3	1	1.418	0	0	#	C
4	1	2.127	1.228024	0	#	C
5	1	4.254	0	0	#	C
6	1	3.545	1.228024	0	#	C
7	1	5.672	0	0	#	C
8	1	6.381	1.228024	0	#	C
9	1	8.508	0	0	#	C
10	1	7.799	1.228024	0	#	C
11	1	9.926	0	0	#	C
12	1	10.635	1.228024	0	#	C
13	1	12.762	0	0	#	C
14	1	12.053	1.228024	0	#	C
15	1	14.18	0	0	#	C
16	1	14.889	1.228024	0	#	C
17	1	17.016001	0	0	#	C
18	1	16.306999	1.228024	0	#	C
19	1	18.434	0	0	#	C
20	1	19.143	1.228024	0	#	C
21	1	21.27	0	0	#	C
22	1	20.561001	1.228024	0	#	C
23	1	22.688	0	0	#	C
24	1	23.396999	1.228024	0	#	C
25	1	25.524	0	0	#	C
26	1	24.815001	1.228024	0	#	C
27	1	26.941999	0	0	#	C
28	1	27.650999	1.228024	0	#	C
29	1	29.778	0	0	#	C
30	1	29.069	1.228024	0	#	C
31	1	31.195999	0	0	#	C
32	1	31.905001	1.228024	0	#	C
33	1	34.032001	0	0	#	C
34	1	33.323002	1.228024	0	#	C
35	1	35.450001	0	0	#	C
36	1	36.159	1.228024	0	#	C
37	1	38.285999	0	0	#	C
38	1	37.577	1.228024	0	#	C
39	1	39.703999	0	0	#	C
40	1	40.412998	1.228024	0	#	C
41	1	42.540001	0	0	#	C
42	1	41.831001	1.228024	0	#	C
43	1	43.958	0	0	#	C
44	1	44.667	1.228024	0	#	C
45	1	46.793999	0	0	#	C
46	1	46.084999	1.228024	0	#	C
47	1	48.212002	0	0	#	C
48	1	48.921001	1.228024	0	#	C
49	1	51.048	0	0	#	C
50	1	50.339001	1.228024	0	#	C
51	1	52.466	0	0	#	C
52	1	53.174999	1.228024	0	#	C
53	1	55.301998	0	0	#	C
54	1	54.592999	1.228024	0	#	C
55	1	56.720001	0	0	#	C
56	1	57.429001	1.228024	0	#	C
57	1	59.556	0	0	#	C
58	1	58.847	1.228024	0	#	C
59	1	60.973999	0	0	#	C
60	1	61.682999	1.228024	0	#	C
61	1	63.810001	0	0	#	C
62	1	63.101002	1.228024	0	#	C
63	1	65.227997	0	0	#	C
64	1	65.936996	1.228024	0	#	C
65	1	68.064003	0	0	#	C
66	1	67.355003	1.228024	0	#	C
67	1	69.482002	0	0	#	C
68	1	70.191002	1.228024	0	#	C
69	1	72.318001	0	0	#	C
70	1	71.609001	1.228024	0	#	C
71	1	73.736	0	0	#	C
72	1	74.445	1.228024	0	#	C
73	1	76.571999	0	0	#	C
74	1	75.862999	1.228024	0	#	C
75	1	77.989998	0	0	#	C
76	1	78.698997	1.228024	0	#	C
77	1	80.825996	0	0	#	C
78	1	80.116997	1.228024	0	#	C
79	1	82.244003	0	0	#	C
80	1	82.953003	1.228024	0	#	C
81	1	85.080002	0	0	#	C
82	1	84.371002	1.228024	0	#	C
83	1	86.498001	0	0	#	C
84	1	87.207001	1.228024	0	#	C
85	1	89.334	0	0	#	C
86	1	88.625	1.228024	0	#	C
87	1	90.751999	0	0	#	C
88	1	91.460999	1.228024	0	#	C
89	1	93.587997	0	0	#	C
90	1	92.878998	1.228024	0	#	C
91	1	95.005997	0	0	#	C
92	1	95.714996	1.228024	0	#	C
93	1	97.842003	0	0	#	C
94	1	97.133003	1.228024	0	#	C
95	1	99.260002	0	0	#	C
96	1	99.969002	1.228024	0	#	C
97	1	102.096001	0	0	#	C
98	1	101.387001	1.228024	0	#	C
99	1	103.514	0	0	#	C
100	1	104.223	1.228024	0	#	C
101	1	106.349998	0	0	#	C
102	1	105.640999	1.228024	0	#	C
103	1	107.767998	0	0	#	C
104	1	108.476997	1.228024	0	#	C
105	1	110.603996	0	0	#	C
106	1	109.894997	1.228024	0	#	C
107	1	112.022003	0	0	#	C
108	1	112.731003	1.228024	0	#	C
109	1	114.858002	0	0	#	C
110	1	114.149002	1.228024	0	#	C
111	1	116.276001	0	0	#	C
112	1	116.985001	1.228024	0	#	C
113	1	119.112	0	0	#	C
114	1	118.403	1.228024	0	#	C
115	1	120.529999	0	0	#	C
116	1	121.238998	1.228024	0	#	C
117	1	123.365997	0	0	#	C
118	1	122.656998	1.228024	0	#	C
119	1	124.783997	0	0	#	C
120	1	125.492996	1.228024	0	#	C
121	1	127.620003	0	0	#	C
122	1	126.911003	1.228024	0	#	C
123	1	129.037994	0	0	#	C
124	1	129.746994	1.228024	0	#	C
125	1	131.873993	0	0	#	C
126	1	131.164993	1.228024	0	#	C
127	1	133.292007	0	0	#	C
128	1	134.001007	1.228024	0	#	C
129	1	136.128006	0	0	#	C
130	1	135.419006	1.228024	0	#	C
131	1	137.546005	0	0	#	C
132	1	138.255005	1.228024	0	#	C
133	1	140.382004	0	0	#	C
134	1	139.673004	1.228024	0	#	C
135	1	141.800003	0	0	#	C
136	1	142.509003	1.228024	0	#	C
137	1	144.636002	0	0	#	C
138	1	143.927002	1.228024	0	#	C
139	1	146.054001	0	0	#	C
140	1	146.763	1.228024	0	#	C
141	1	148.889999	0	0	#	C
142	1	148.181	1.228024	0	#	C
143	1	150.307999	0	0	#	C
144	1	151.016998	1.228024	0	#	C
145	1	153.143997	0	0	#	C
146	1	152.434998	1.228024	0	#	C
147	1	154.561996	0	0	#	C
148	1	155.270996	1.228024	0	#	C
149	1	157.397995	0	0	#	C
150	1	156.688995	1.228024	0	#	C
151	1	158.815994	0	0	#	C
152	1	159.524994	1.228024	0	#	C
153	1	161.651993	0	0	#	C
154	1	160.942993	1.228024	0	#	C
155	1	163.070007	0	0	#	C
156	1	163.779007	1.228024	0	#	C
157	1	165.906006	0	0	#	C
158	1	165.197006	1.228024	0	#	C
159	1	167.324005	0	0	#	C
160	1	168.033005	1.228024	0	#	C
161	1	170.160004	0	0	#	C
162	1	169.451004	1.228024	0	#	C
163	1	171.578003	0	0	#	C
164	1	172.287003	1.228024	0	#	C
165	1	174.414001	0	0	#	C
166	1	173.705002	1.228024	0	#	C
167	1	175.832001	0	0	#	C
168	1	176.541	1.228024	0	#	C
169	1	178.667999	0	0	#	C
170	1	177.959	1.228024	0	#	C
171	1	180.085999	0	0	#	C
172	1	180.794998	1.228024	0	#	C
173	1	182.921997	0	0	#	C
174	1	182.212997	1.228024	0	#	C
175	1	184.339996	0	0	#	C
176	1	185.048996	1.228024	0	#	C
177	1	187.175995	0	0	#	C
178	1	186.466995	1.228024	0	#	C
179	1	188.593994	0	0	#	C
180	1	189.302994	1.228024	0	#	C
181	1	191.429993	0	0	#	C
182	1	190.720993	1.228024	0	#	C
183	1	192.848007	0	0	#	C
184	1	193.557007	1.228024	0	#	C
185	1	195.684006	0	0	#	C
186	1	194.975006	1.228024	0	#	C
187	1	197.102005	0	0	#	C
188	1	197.811005	1.228024	0	#	C
189	1	199.938004	0	0	#	C
190	1	199.229004	1.228024	0	#	C
191	1	201.356003	0	0	#	C
192	1	202.065002	1.228024	0	#	C
193	1	0	2.456048	0	#	C
194	1	-0.709	3.684072	0	#	C
195	1	1.418	2.456048	0	#	C
196	1	2.127	3.684072	0	#	C
197	1	4.254	2.456048	0	#	C
198	1	3.545	3.684072	0	#	C
199	1	5.672	2.456048	0	#	C
200	1	6.381	3.684072	0	#	C
201	1	8.508	2.456048	0	#	C
202	1	7.799	3.684072	0	#	C
203	1	9.926	2.456048	0	#	C
204	1	10.635	3.684072	0	#	C
205	1	12.762	2.456048	0	#	C
206	1	12.053	3.684072	0	#	C
207	1	14.18	2.456048	0	#	C
208	1	14.889	3.684072	0	#	C
209	1	17.016001	2.456048	0	#	C
210	1	16.306999	3.684072	0	#	C
211	1	18.434	2.456048	0	#	C
212	1	19.143	3.684072	0	#	C
213	1	21.27	2.456048	0	#	C
214	1	20.561001	3.684072	0	#	C
215	1	22.688	2.456048	0	#	C
216	1	23.396999	3.684072	0	#	C
217	1	25.524	2.456048	0	#	C
218	1	24.815001	3.684072	0	#	C
219	1	26.941999	2.456048	0	#	C
220	1	27.650999	3.684072	0	#	C
221	1	29.778	2.456048	0	#	C
222	1	29.069	3.684072	0	#	C
223	1	31.195999	2.456048	0	#	C
224	1	31.905001	3.684072	0	#	C
225	1	34.032001	2.456048	0	#	C
226	1	33.323002	3.684072	0	#	C
227	1	35.450001	2.456048	0	#	C
228	1	36.159	3.684072	0	#	C
229	1	38.285999	2.456048	0	#	C
230	1	37.577	3.684072	0	#	C
231	1	39.703999	2.456048	0	#	C
232	1	40.412998	3.684072	0	#	C
233	1	42.540001	2.456048	0	#	C
234	1	41.831001	3.684072	0	#	C
235	1	43.958	2.456048	0	#	C
236	1	44.667	3.684072	0	#	C
237	1	46.793999	2.456048	0	#	C
238	1	46.084999	3.684072	0	#	C
239	1	48.212002	2.456048	0	#	C
240	1	48.921001	3.684072	0	#	C
241	1	51.048	2.456048	0	#	C
242	1	50.339001	3.684072	0	#	C
243	1	52.466	2.456048	0	#	C
244	1	53.174999	3.684072	0	#	C
245	1	55.301998	2.456048	0	#	C
246	1	54.592999	3.684072	0	#	C
247	1	56.720001	2.456048	0	#	C
248	1	57.429001	3.684072	0	#	C
249	1	59.556	2.456048	0	#	C
250	1	58.847	3.684072	0	#	C
251	1	60.973999	2.456048	0	#	C
252	1	61.682999	3.684072	0	#	C
253	1	63.810001	2.456048	0	#	C
254	1	63.101002	3.684072	0	#	C
255	1	65.227997	2.456048	0	#	C
256	1	65.936996	3.684072	0	#	C
257	1	68.064003	2.456048	0	#	C
258	1	67.355003	3.684072	0	#	C
259	1	69.482002	2.456048	0	#	C
260	1	70.191002	3.684072	0	#	C
261	1	72.318001	2.456048	0	#	C
262	1	71.609001	3.684072	0	#	C
263	1	73.736	2.456048	0	#	C
264	1	74.445	3.684072	0	#	C
265	1	76.571999	2.456048	0	#	C
266	1	75.862999	3.684072	0	#	C
267	1	77.989998	2.456048	0	#	C
268	1	78.698997	3.684072	0	#	C
269	1	80.825996	2.456048	0	#	C
270	1	80.116997	3.684072	0	#	C
271	1	82.244003	2.456048	0	#	C
272	1	82.953003	3.684072	0	#	C
273	1	85.080002	2.456048	0	#	C
274	1	84.371002	3.684072	0	#	C
275	1	86.498001	2.456048	0	#	C
276	1	87.207001	3.684072	0	#	C
277	1	89.334	2.456048	0	#	C
278	1	88.625	3.684072	0	#	C
279	1	90.751999	2.456048	0	#	C
280	1	91.460999	3.684072	0	#	C
281	1	93.587997	2.456048	0	#	C
282	1	92.878998	3.684072	0	#	C
283	1	95.005997	2.456048	0	#	C
284	1	95.714996	3.684072	0	#	C
285	1	97.842003	2.456048	0	#	C
286	1	97.133003	3.684072	0	#	C
287	1	99.260002	2.456048	0	#	C
288	1	99.969002	3.684072	0	#	C
289	1	102.096001	2.456048	0	#	C
290	1	101.387001	3.684072	0	#	C
291	1	103.514	2.456048	0	#	C
292	1	104.223	3.684072	0	#	C
293	1	106.349998	2.456048	0	#	C
294	1	105.640999	3.684072	0	#	C
295	1	107.767998	2.456048	0	#	C
296	1	108.476997	3.684072	0	#	C
297	1	110.603996	2.456048	0	#	C
298	1	109.894997	3.684072	0	#	C
299	1	112.022003	2.456048	0	#	C
300	1	112.731003	3.684072	0	#	C
301	1	114.858002	2.456048	0	#	C
302	1	114.149002	3.684072	0	#	C
303	1	116.276001	2.456048	0	#	C
304	1	116.985001	3.684072	0	#	C
305	1	119.112	2.456048	0	#	C
306	1	118.403	3.684072	0	#	C
307	1	120.529999	2.456048	0	#	C
308	1	121.238998	3.684072	0	#	C
309	1	123.365997	2.456048	0	#	C
310	1	122.656998	3.684072	0	#	C
311	1	124.783997	2.456048	0	#	C
312	1	125.492996	3.684072	0	#	C
313	1	127.620003	2.456048	0	#	C
314	1	126.911003	3.684072	0	#	C
315	1	129.037994	2.456048	0	#	C
316	1	129.746994	3.684072	0	#	C
317	1	131.873993	2.456048	0	#	C
318	1	131.164993	3.684072	0	#	C
319	1	133.292007	2.456048	0	#	C
320	1	134.001007	3.684072	0	#	C
321	1	136.128006	2.456048	0	#	C
322	1	135.419006	3.684072	0	#	C
323	1	137.546005	2.456048	0	#	C
324	1	138.255005	3.684072	0	#	C
325	1	140.382004	2.456048	0	#	C
326	1	139.673004	3.684072	0	#	C
327	1	141.800003	2.456048	0	#	C
328	1	142.509003	3.684072	0	#	C
329	1	144.636002	2.456048	0	#	C
330	1	143.927002	3.684072	0	#	C
331	1	146.054001	2.456048	0	#	C
332	1	146.763	3.684072	0	#	C
333	1	148.889999	2.456048	0	#	C
334	1	148.181	3.684072	0	#	C
335	1	150.307999	2.456048	0	#	C
336	1	151.016998	3.684072	0	#	C
337	1	153.143997	2.456048	0	#	C
338	1	152.434998	3.684072	0	#	C
339	1	154.561996	2.456048	0	#	C
340	1	155.270996	3.684072	0	#	C
341	1	157.397995	2.456048	0	#	C
342	1	156.688995	3.684072	0	#	C
343	1	158.815994	2.456048	0	#	C
344	1	159.524994	3.684072	0	#	C
345	1	161.651993	2.456048	0	#	C
346	1	160.942993	3.684072	0	#	C
347	1	163.070007	2.456048	0	#	C
348	1	163.779007	3.684072	0	#	C
349	1	165.906006	2.456048	0	#	C
350	1	165.197006	3.684072	0	#	C
351	1	167.324005	2.456048	0	#	C
352	1	168.033005	3.684072	0	#	C
353	1	170.160004	2.456048	0	#	C
354	1	169.451004	3.684072	0	#	C
355	1	171.578003	2.456048	0	#	C
356	1	172.287003	3.684072	0	#	C
357	1	174.414001	2.456048	0	#	C
358	1	173.705002	3.684072	0	#	C
359	1	175.832001	2.456048	0	#	C
360	1	176.541	3.684072	0	#	C
361	1	178.667999	2.456048	0	#	C
362	1	177.959	3.684072	0	#	C
363	1	180.085999	2.456048	0	#	C
364	1	180.794998	3.684072	0	#	C
365	1	182.921997	2.456048	0	#	C
366	1	182.212997	3.684072	0	#	C
367	1	184.339996	2.456048	0	#	C
368	1	185.048996	3.684072	0	#	C
369	1	187.175995	2.456048	0	#	C
370	1	186.466995	3.684072	0	#	C
371	1	188.593994	2.456048	0	#	C
372	1	189.302994	3.684072	0	#	C
373	1	191.429993	2.456048	0	#	C
374	1	190.720993	3.684072	0	#	C
375	1	192.848007	2.456048	0	#	C
376	1	193.557007	3.684072	0	#	C
377	1	195.684006	2.456048	0	#	C
378	1	194.975006	3.684072	0	#	C
379	1	197.102005	2.456048	0	#	C
380	1	197.811005	3.684072	0	#	C
381	1	199.938004	2.456048	0	#	C
382	1	199.229004	3.684072	0	#	C
383	1	201.356003	2.456048	0	#	C
384	1	202.065002	3.684072	0	#	C
385	1	0	4.912096	0	#	C
386	1	-0.709	6.14012	0	#	C
387	1	1.418	4.912096	0	#	C
388	1	2.127	6.14012	0	#	C
389	1	4.254	4.912096	0	#	C
390	1	3.545	6.14012	0	#	C
391	1	5.672	4.912096	0	#	C
392	1	6.381	6.14012	0	#	C
393	1	8.508	4.912096	0	#	C
394	1	7.799	6.14012	0	#	C
395	1	9.926	4.912096	0	#	C
396	1	10.635	6.14012	0	#	C
397	1	12.762	4.912096	0	#	C
398	1	12.053	6.14012	0	#	C
399	1	14.18	4.912096	0	#	C
400	1	14.889	6.14012	0	#	C
401	1	17.016001	4.912096	0	#	C
402	1	16.306999	6.14012	0	#	C
403	1	18.434	4.912096	0	#	C
404	1	19.143	6.14012	0	#	C
405	1	21.27	4.912096	0	#	C
406	1	20.561001	6.14012	0	#	C
407	1	22.688	4.912096	0	#	C
408	1	23.396999	6.14012	0	#	C
409	1	25.524	4.912096	0	#	C
410	1	24.815001	6.14012	0	#	C
411	1	26.941999	4.912096	0	#	C
412	1	27.650999	6.14012	0	#	C
413	1	29.778	4.912096	0	#	C
414	1	29.069	6.14012	0	#	C
415	1	31.195999	4.912096	0	#	C
416	1	31.905001	6.14012	0	#	C
417	1	34.032001	4.912096	0	#	C
418	1	33.323002	6.14012	0	#	C
419	1	35.450001	4.912096	0	#	C
420	1	36.159	6.14012	0	#	C
421	1	38.285999	4.912096	0	#	C
422	1	37.577	6.14012	0	#	C
423	1	39.703999	4.912096	0	#	C
424	1	40.412998	6.14012	0	#	C
425	1	42.540001	4.912096	0	#	C
426	1	41.831001	6.14012	0	#	C
427	1	43.958	4.912096	0	#	C
428	1	44.667	6.14012	0	#	C
429	1	46.793999	4.912096	0	#	C
430	1	46.084999	6.14012	0	#	C
431	1	48.212002	4.912096	0	#	C
432	1	48.921001	6.14012	0	#	C
433	1	51.048	4.912096	0	#	C
434	1	50.339001	6.14012	0	#	C
435	1	52.466	4.912096	0	#	C
436	1	53.174999	6.14012	0	#	C
437	1	55.301998	4.912096	0	#	C
438	1	54.592999	6.14012	0	#	C
439	1	56.720001	4.912096	0	#	C
440	1	57.429001	6.14012	0	#	C
441	1	59.556	4.912096	0	#	C
442	1	58.847	6.14012	0	#	C
443	1	60.973999	4.912096	0	#	C
444	1	61.682999	6.14012	0	#	C
445	1	63.810001	4.912096	0	#	C
446	1	63.101002	6.14012	0	#	C
447	1	65.227997	4.912096	0	#	C
448	1	65.936996	6.14012	0	#	C
449	1	68.064003	4.912096	0	#	C
450	1	67.355003	6.14012	0	#	C
451	1	69.482002	4.912096	0	#	C
452	1	70.191002	6.14012	0	#	C
453	1	72.318001	4.912096	0	#	C
454	1	71.609001	6.14012	0	#	C
455	1	73.736	4.912096	0	#	C
456	1	74.445	6.14012	0	#	C
457	1	76.571999	4.912096	0	#	C
458	1	75.862999	6.14012	0	#	C
459	1	77.989998	4.912096	0	#	C
460	1	78.698997	6.14012	0	#	C
461	1	80.825996	4.912096	0	#	C
462	1	80.116997	6.14012	0	#	C
463	1	82.244003	4.912096	0	#	C
464	1	82.953003	6.14012	0	#	C
465	1	85.080002	4.912096	0	#	C
466	1	84.371002	6.14012	0	#	C
467	1	86.498001	4.912096	0	#	C
468	1	87.207001	6.14012	0	#	C
469	1	89.334	4.912096	0	#	C
470	1	88.625	6.14012	0	#	C
471	1	90.751999	4.912096	0	#	C
472	1	91.460999	6.14012	0	#	C
473	1	93.587997	4.912096	0	#	C
474	1	92.878998	6.14012	0	#	C
475	1	95.005997	4.912096	0	#	C
476	1	95.714996	6.14012	0	#	C
477	1	97.842003	4.912096	0	#	C
478	1	97.133003	6.14012	0	#	C
479	1	99.260002	4.912096	0	#	C
480	1	99.969002	6.14012	0	#	C
481	1	102.096001	4.912096	0	#	C
482	1	101.387001	6.14012	0	#	C
483	1	103.514	4.912096	0	#	C
484	1	104.223	6.14012	0	#	C
485	1	106.349998	4.912096	0	#	C
486	1	105.640999	6.14012	0	#	C
487	1	107.767998	4.912096	0	#	C
488	1	108.476997	6.14012	0	#	C
489	1	110.603996	4.912096	0	#	C
490	1	109.894997	6.14012	0	#	C
491	1	112.022003	4.912096	0	#	C
492	1	112.731003	6.14012	0	#	C
493	1	114.858002	4.912096	0	#	C
494	1	114.149002	6.14012	0	#	C
495	1	116.276001	4.912096	0	#	C
496	1	116.985001	6.14012	0	#	C
497	1	119.112	4.912096	0	#	C
498	1	118.403	6.14012	0	#	C
499	1	120.529999	4.912096	0	#	C
500	1	121.238998	6.14012	0	#	C
501	1	123.365997	4.912096	0	#	C
502	1	122.656998	6.14012	0	#	C
503	1	124.783997	4.912096	0	#	C
504	1	125.492996	6.14012	0	#	C
505	1	127.620003	4.912096	0	#	C
506	1	126.911003	6.14012	0	#	C
507	1	129.037994	4.912096	0	#	C
508	1	129.746994	6.14012	0	#	C
509	1	131.873993	4.912096	0	#	C
510	1	131.164993	6.14012	0	#	C
511	1	133.292007	4.912096	0	#	C
512	1	134.001007	6.14012	0	#	C
513	1	136.128006	4.912096	0	#	C
514	1	135.419006	6.14012	0	#	C
515	1	137.546005	4.912096	0	#	C
516	1	138.255005	6.14012	0	#	C
517	1	140.382004	4.912096	0	#	C
518	1	139.673004	6.14012	0	#	C
519	1	141.800003	4.912096	0	#	C
520	1	142.509003	6.14012	0	#	C
521	1	144.636002	4.912096	0	#	C
522	1	143.927002	6.14012	0	#	C
523	1	146.054001	4.912096	0	#	C
524	1	146.763	6.14012	0	#	C
525	1	148.889999	4.912096	0	#	C
526	1	148.181	6.14012	0	#	C
527	1	150.307999	4.912096	0	#	C
528	1	151.016998	6.14012	0	#	C
529	1	153.143997	4.912096	0	#	C
530	1	152.434998	6.14012	0	#	C
531	1	154.561996	4.912096	0	#	C
532	1	155.270996	6.14012	0	#	C
533	1	157.397995	4.912096	0	#	C
534	1	156.688995	6.14012	0	#	C
535	1	158.815994	4.912096	0	#	C
536	1	159.524994	6.14012	0	#	C
537	1	161.651993	4.912096	0	#	C
538	1	160.942993	6.14012	0	#	C
539	1	163.070007	4.912096	0	#	C
540	1	163.779007	6.14012	0	#	C
541	1	165.906006	4.912096	0	#	C
542	1	165.197006	6.14012	0	#	C
543	1	167.324005	4.912096	0	#	C
544	1	168.033005	6.14012	0	#	C
545	1	170.160004	4.912096	0	#	C
546	1	169.451004	6.14012	0	#	C
547	1	171.578003	4.912096	0	#	C
548	1	172.287003	6.14012	0	#	C
549	1	174.414001	4.912096	0	#	C
550	1	173.705002	6.14012	0	#	C
551	1	175.832001	4.912096	0	#	C
552	1	176.541	6.14012	0	#	C
553	1	178.667999	4.912096	0	#	C
554	1	177.959	6.14012	0	#	C
555	1	180.085999	4.912096	0	#	C
556	1	180.794998	6.14012	0	#	C
557	1	182.921997	4.912096	0	#	C
558	1	182.212997	6.14012	0	#	C
559	1	184.339996	4.912096	0	#	C
560	1	185.048996	6.14012	0	#	C
561	1	187.175995	4.912096	0	#	C
562	1	186.466995	6.14012	0	#	C
563	1	188.593994	4.912096	0	#	C
564	1	189.302994	6.14012	0	#	C
565	1	191.429993	4.912096	0	#	C
566	1	190.720993	6.14012	0	#	C
567	1	192.848007	4.912096	0	#	C
568	1	193.557007	6.14012	0	#	C
569	1	195.684006	4.912096	0	#	C
570	1	194.975006	6.14012	0	#	C
571	1	197.102005	4.912096	0	#	C
572	1	197.811005	6.14012	0	#	C
573	1	199.938004	4.912096	0	#	C
574	1	199.229004	6.14012	0	#	C
575	1	201.356003	4.912096	0	#	C
576	1	202.065002	6.14012	0	#	C
577	1	0	7.368144	0	#	C
578	1	-0.709	8.596169	0	#	C
579	1	1.418	7.368144	0	#	C
580	1	2.127	8.596169	0	#	C
581	1	4.254	7.368144	0	#	C
582	1	3.545	8.596169	0	#	C
583	1	5.672	7.368144	0	#	C
584	1	6.381	8.596169	0	#	C
585	1	8.508	7.368144	0	#	C
586	1	7.799	8.596169	0	#	C
587	1	9.926	7.368144	0	#	C
588	1	10.635	8.596169	0	#	C
589	1	12.762	7.368144	0	#	C
590	1	12.053	8.596169	0	#	C
591	1	14.18	7.368144	0	#	C
592	1	14.889	8.596169	0	#	C
593	1	17.016001	7.368144	0	#	C
594	1	16.306999	8.596169	0	#	C
595	1	18.434	7.368144	0	#	C
596	1	19.143	8.596169	0	#	C
597	1	21.27	7.368144	0	#	C
598	1	20.561001	8.596169	0	#	C
599	1	22.688	7.368144	0	#	C
600	1	23.396999	8.596169	0	#	C
601	1	25.524	7.368144	0	#	C
602	1	24.815001	8.596169	0	#	C
603	1	26.941999	7.368144	0	#	C
604	1	27.650999	8.596169	0	#	C
605	1	29.778	7.368144	0	#	C
606	1	29.069	8.596169	0	#	C
607	1	31.195999	7.368144	0	#	C
608	1	31.905001	8.596169	0	#	C
609	1	34.032001	7.368144	0	#	C
610	1	33.323002	8.596169	0	#	C
611	1	35.450001	7.368144	0	#	C
612	1	36.159	8.596169	0	#	C
613	1	38.285999	7.368144	0	#	C
614	1	37.577	8.596169	0	#	C
615	1	39.703999	7.368144	0	#	C
616	1	40.412998	8.596169	0	#	C
617	1	42.540001	7.368144	0	#	C
618	1	41.831001	8.596169	0	#	C
619	1	43.958	7.368144	0	#	C
620	1	44.667	8.596169	0	#	C
621	1	46.793999	7.368144	0	#	C
622	1	46.084999	8.596169	0	#	C
623	1	48.212002	7.368144	0	#	C
624	1	48.921001	8.596169	0	#	C
625	1	51.048	7.368144	0	#	C
626	1	50.339001	8.596169	0	#	C
627	1	52.466	7.368144	0	#	C
628	1	53.174999	8.596169	0	#	C
629	1	55.301998	7.368144	0	#	C
630	1	54.592999	8.596169	0	#	C
631	1	56.720001	7.368144	0	#	C
632	1	57.429001	8.596169	0	#	C
633	1	59.556	7.368144	0	#	C
634	1	58.847	8.596169	0	#	C
635	1	60.973999	7.368144	0	#	C
636	1	61.682999	8.596169	0	#	C
637	1	63.810001	7.368144	0	#	C
638	1	63.101002	8.596169	0	#	C
639	1	65.227997	7.368144	0	#	C
640	1	65.936996	8.596169	0	#	C
641	1	68.064003	7.368144	0	#	C
642	1	67.355003	8.596169	0	#	C
643	1	69.482002	7.368144	0	#	C
644	1	70.191002	8.596169	0	#	C
645	1	72.318001	7.368144	0	#	C
646	1	71.609001	8.596169	0	#	C
647	1	73.736	7.368144	0	#	C
648	1	74.445	8.596169	0	#	C
649	1	76.571999	7.368144	0	#	C
650	1	75.862999	8.596169	0	#	C
651	1	77.989998	7.368144	0	#	C
652	1	78.698997	8.596169	0	#	C
653	1	80.825996	7.368144	0	#	C
654	1	80.116997	8.596169	0	#	C
655	1	82.244003	7.368144	0	#	C
656	1	82.953003	8.596169	0	#	C
657	1	85.080002	7.368144	0	#	C
658	1	84.371002	8.596169	0	#	C
659	1	86.498001	7.368144	0	#	C
660	1	87.207001	8.596169	0	#	C
661	1	89.334	7.368144	0	#	C
662	1	88.625	8.596169	0	#	C
663	1	90.751999	7.368144	0	#	C
664	1	91.460999	8.596169	0	#	C
665	1	93.587997	7.368144	0	#	C
666	1	92.878998	8.596169	0	#	C
667	1	95.005997	7.368144	0	#	C
668	1	95.714996	8.596169	0	#	C
669	1	97.842003	7.368144	0	#	C
670	1	97.133003	8.596169	0	#	C
671	1	99.260002	7.368144	0	#	C
672	1	99.969002	8.596169	0	#	C
673	1	102.096001	7.368144	0	#	C
674	1	101.387001	8.596169	0	#	C
675	1	103.514	7.368144	0	#	C
676	1	104.223	8.596169	0	#	C
677	1	106.349998	7.368144	0	#	C
678	1	105.640999	8.596169	0	#	C
679	1	107.767998	7.368144	0	#	C
680	1	108.476997	8.596169	0	#	C
681	1	110.603996	7.368144	0	#	C
682	1	109.894997	8.596169	0	#	C
683	1	112.022003	7.368144	0	#	C
684	1	112.731003	8.596169	0	#	C
685	1	114.858002	7.368144	0	#	C
686	1	114.149002	8.596169	0	#	C
687	1	116.276001	7.368144	0	#	C
688	1	116.985001	8.596169	0	#	C
689	1	119.112	7.368144	0	#	C
690	1	118.403	8.596169	0	#	C
691	1	120.529999	7.368144	0	#	C
692	1	121.238998	8.596169	0	#	C
693	1	123.365997	7.368144	0	#	C
694	1	122.656998	8.596169	0	#	C
695	1	124.783997	7.368144	0	#	C
696	1	125.492996	8.596169	0	#	C
697	1	127.620003	7.368144	0	#	C
698	1	126.911003	8.596169	0	#	C
699	1	129.037994	7.368144	0	#	C
700	1	129.746994	8.596169	0	#	C
701	1	131.873993	7.368144	0	#	C
702	1	131.164993	8.596169	0	#	C
703	1	133.292007	7.368144	0	#	C
704	1	134.001007	8.596169	0	#	C
705	1	136.128006	7.368144	0	#	C
706	1	135.419006	8.596169	0	#	C
707	1	137.546005	7.368144	0	#	C
708	1	138.255005	8.596169	0	#	C
709	1	140.382004	7.368144	0	#	C
710	1	139.673004	8.596169	0	#	C
711	1	141.800003	7.368144	0	#	C
712	1	142.509003	8.596169	0	#	C
713	1	144.636002	7.368144	0	#	C
714	1	143.927002	8.596169	0	#	C
715	1	146.054001	7.368144	0	#	C
716	1	146.763	8.596169	0	#	C
717	1	148.889999	7.368144	0	#	C
718	1	148.181	8.596169	0	#	C
719	1	150.307999	7.368144	0	#	C
720	1	151.016998	8.596169	0	#	C
721	1	153.143997	7.368144	0	#	C
722	1	152.434998	8.596169	0	#	C
723	1	154.561996	7.368144	0	#	C
724	1	155.270996	8.596169	0	#	C
725	1	157.397995	7.368144	0	#	C
726	1	156.688995	8.596169	0	#	C
727	1	158.815994	7.368144	0	#	C
728	1	159.524994	8.596169	0	#	C
729	1	161.651993	7.368144	0	#	C
730	1	160.942993	8.596169	0	#	C
731	1	163.070007	7.368144	0	#	C
732	1	163.779007	8.596169	0	#	C
733	1	165.906006	7.368144	0	#	C
734	1	165.197006	8.596169	0	#	C
735	1	167.324005	7.368144	0	#	C
736	1	168.033005	8.596169	0	#	C
737	1	170.160004	7.368144	0	#	C
738	1	169.451004	8.596169	0	#	C
739	1	171.578003	7.368144	0	#	C
740	1	172.287003	8.596169	0	#	C
741	1	174.414001	7.368144	0	#	C
742	1	173.705002	8.596169	0	#	C
743	1	175.832001	7.368144	0	#	C
744	1	176.541	8.596169	0	#	C
745	1	178.667999	7.368144	0	#	C
746	1	177.959	8.596169	0	#	C
747	1	180.085999	7.368144	0	#	C
748	1	180.794998	8.596169	0	#	C
749	1	182.921997	7.368144	0	#	C
750	1	182.212997	8.596169	0	#	C
751	1	184.339996	7.368144	0	#	C
752	1	185.048996	8.596169	0	#	C
753	1	187.175995	7.368144	0	#	C
754	1	186.466995	8.596169	0	#	C
755	1	188.593994	7.368144	0	#	C
756	1	189.302994	8.596169	0	#	C
757	1	191.429993	7.368144	0	#	C
758	1	190.720993	8.596169	0	#	C
759	1	192.848007	7.368144	0	#	C
760	1	193.557007	8.596169	0	#	C
761	1	195.684006	7.368144	0	#	C
762	1	194.975006	8.596169	0	#	C
763	1	197.102005	7.368144	0	#	C
764	1	197.811005	8.596169	0	#	C
765	1	199.938004	7.368144	0	#	C
766	1	199.229004	8.596169	0	#	C
767	1	201.356003	7.368144	0	#	C
768	1	202.065002	8.596169	0	#	C
769	1	0	9.824192	0	#	C
770	1	-0.709	11.052217	0	#	C
771	1	1.418	9.824192	0	#	C
772	1	2.127	11.052217	0	#	C
773	1	4.254	9.824192	0	#	C
774	1	3.545	11.052217	0	#	C
775	1	5.672	9.824192	0	#	C
776	1	6.381	11.052217	0	#	C
777	1	8.508	9.824192	0	#	C
778	1	7.799	11.052217	0	#	C
779	1	9.926	9.824192	0	#	C
780	1	10.635	11.052217	0	#	C
781	1	12.762	9.824192	0	#	C
782	1	12.053	11.052217	0	#	C
783	1	14.18	9.824192	0	#	C
784	1	14.889	11.052217	0	#	C
785	1	17.016001	9.824192	0	#	C
786	1	16.306999	11.052217	0	#	C
787	1	18.434	9.824192	0	#	C
788	1	19.143	11.052217	0	#	C
789	1	21.27	9.824192	0	#	C
790	1	20.561001	11.052217	0	#	C
791	1	22.688	9.824192	0	#	C
792	1	23.396999	11.052217	0	#	C
793	1	25.524	9.824192	0	#	C
794	1	24.815001	11.052217	0	#	C
795	1	26.941999	9.824192	0	#	C
796	1	27.650999	11.052217	0	#	C
797	1	29.778	9.824192	0	#	C
798	1	29.069	11.052217	0	#	C
799	1	31.195999	9.824192	0	#	C
800	1	31.905001	11.052217	0	#	C
801	1	34.032001	9.824192	0	#	C
802	1	33.323002	11.052217	0	#	C
803	1	35.450001	9.824192	0	#	C
804	1	36.159	11.052217	0	#	C
805	1	38.285999	9.824192	0	#	C
806	1	37.577	11.052217	0	#	C
807	1	39.703999	9.824192	0	#	C
808	1	40.412998	11.052217	0	#	C
809	1	42.540001	9.824192	0	#	C
810	1	41.831001	11.052217	0	#	C
811	1	43.958	9.824192	0	#	C
812	1	44.667	11.052217	0	#	C
813	1	46.793999	9.824192	0	#	C
814	1	46.084999	11.052217	0	#	C
815	1	48.212002	9.824192	0	#	C
816	1	48.921001	11.052217	0	#	C
817	1	51.048	9.824192	0	#	C
818	1	50.339001	11.052217	0	#	C
819	1	52.466	9.824192	0	#	C
820	1	53.174999	11.052217	0	#	C
821	1	55.301998	9.824192	0	#	C
822	1	54.592999	11.052217	0	#	C
823	1	56.720001	9.824192	0	#	C
824	1	57.429001	11.052217	0	#	C
825	1	59.556	9.824192	0	#	C
826	1	58.847	11.052217	0	#	C
827	1	60.973999	9.824192	0	#	C
828	1	61.682999	11.052217	0	#	C
829	1	63.810001	9.824192	0	#	C
830	1	63.101002	11.052217	0	#	C
831	1	65.227997	9.824192	0	#	C
832	1	65.936996	11.052217	0	#	C
833	1	68.064003	9.824192	0	#	C
834	1	67.355003	11.052217	0	#	C
835	1	69.482002	9.824192	0	#	C
836	1	70.191002	11.052217	0	#	C
837	1	72.318001	9.824192	0	#	C
838	1	71.609001	11.052217	0	#	C
839	1	73.736	9.824192	0	#	C
840	1	74.445	11.052217	0	#	C
841	1	76.571999	9.824192	0	#	C
842	1	75.862999	11.052217	0	#	C
843	1	77.989998	9.824192	0	#	C
844	1	78.698997	11.052217	0	#	C
845	1	80.825996	9.824192	0	#	C
846	1	80.116997	11.052217	0	#	C
847	1	82.244003	9.824192	0	#	C
848	1	82.953003	11.052217	0	#	C
849	1	85.080002	9.824192	0	#	C
850	1	84.371002	11.052217	0	#	C
851	1	86.498001	9.824192	0	#	C
852	1	87.207001	11.052217	0	#	C
853	1	89.334	9.824192	0	#	C
854	1	88.625	11.052217	0	#	C
855	1	90.751999	9.824192	0	#	C
856	1	91.460999	11.052217	0	#	C
857	1	93.587997	9.824192	0	#	C
858	1	92.878998	11.052217	0	#	C
859	1	95.005997	9.824192	0	#	C
860	1	95.714996	11.052217	0	#	C
861	1	97.842003	9.824192	0	#	C
862	1	97.133003	11.052217	0	#	C
863	1	99.260002	9.824192	0	#	C
864	1	99.969002	11.052217	0	#	C
865	1	102.096001	9.824192	0	#	C
866	1	101.387001	11.052217	0	#	C
867	1	103.514	9.824192	0	#	C
868	1	104.223	11.052217	0	#	C
869	1	106.349998	9.824192	0	#	C
870	1	105.640999	11.052217	0	#	C
871	1	107.767998	9.824192	0	#	C
872	1	108.476997	11.052217	0	#	C
873	1	110.603996	9.824192	0	#	C
874	1	109.894997	11.052217	0	#	C
875	1	112.022003	9.824192	0	#	C
876	1	112.731003	11.052217	0	#	C
877	1	114.858002	9.824192	0	#	C
878	1	114.149002	11.052217	0	#	C
879	1	116.276001	9.824192	0	#	C
880	1	116.985001	11.052217	0	#	C
881	1	119.112	9.824192	0	#	C
882	1	118.403	11.052217	0	#	C
883	1	120.529999	9.824192	0	#	C
884	1	121.238998	11.052217	0	#	C
885	1	123.365997	9.824192	0	#	C
886	1	122.656998	11.052217	0	#	C
887	1	124.783997	9.824192	0	#	C
888	1	125.492996	11.052217	0	#	C
889	1	127.620003	9.824192	0	#	C
890	1	126.911003	11.052217	0	#	C
891	1	129.037994	9.824192	0	#	C
892	1	129.746994	11.052217	0	#	C
893	1	131.873993	9.824192	0	#	C
894	1	131.164993	11.052217	0	#	C
895	1	133.292007	9.824192	0	#	C
896	1	134.001007	11.052217	0	#	C
897	1	136.128006	9.824192	0	#	C
898	1	135.419006	11.052217	0	#	C
899	1	137.546005	9.824192	0	#	C
900	1	138.255005	11.052217	0	#	C
901	1	140.382004	9.824192	0	#	C
902	1	139.673004	11.052217	0	#	C
903	1	141.800003	9.824192	0	#	C
904	1	142.509003	11.052217	0	#	C
905	1	144.636002	9.824192	0	#	C
906	1	143.927002	11.052217	0	#	C
907	1	146.054001	9.824192	0	#	C
908	1	146.763	11.052217	0	#	C
909	1	148.889999	9.824192	0	#	C
910	1	148.181	11.052217	0	#	C
911	1	150.307999	9.824192	0	#	C
912	1	151.016998	11.052217	0	#	C
913	1	153.143997	9.824192	0	#	C
914	1	152.434998	11.052217	0	#	C
915	1	154.561996	9.824192	0	#	C
916	1	155.270996	11.052217	0	#	C
917	1	157.397995	9.824192	0	#	C
918	1	156.688995	11.052217	0	#	C
919	1	158.815994	9.824192	0	#	C
920	1	159.524994	11.052217	0	#	C
921	1	161.651993	9.824192	0	#	C
922	1	160.942993	11.052217	0	#	C
923	1	163.070007	9.824192	0	#	C
924	1	163.779007	11.052217	0	#	C
925	1	165.906006	9.824192	0	#	C
926	1	165.197006	11.052217	0	#	C
927	1	167.324005	9.824192	0	#	C
928	1	168.033005	11.052217	0	#	C
929	1	170.160004	9.824192	0	#	C
930	1	169.451004	11.052217	0	#	C
931	1	171.578003	9.824192	0	#	C
932	1	172.287003	11.052217	0	#	C
933	1	174.414001	9.824192	0	#	C
934	1	173.705002	11.052217	0	#	C
935	1	175.832001	9.824192	0	#	C
936	1	176.541	11.052217	0	#	C
937	1	178.667999	9.824192	0	#	C
938	1	177.959	11.052217	0	#	C
939	1	180.085999	9.824192	0	#	C
940	1	180.794998	11.052217	0	#	C
941	1	182.921997	9.824192	0	#	C
942	1	182.212997	11.052217	0	#	C
943	1	184.339996	9.824192	0	#	C
944	1	185.048996	11.052217	0	#	C
945	1	187.175995	9.824192	0	#	C
946	1	186.466995	11.052217	0	#	C
947	1	188.593994	9.824192	0	#	C
948	1	189.302994	11.052217	0	#	C
949	1	191.429993	9.824192	0	#	C
950	1	190.720993	11.052217	0	#	C
951	1	192.848007	9.824192	0	#	C
952	1	193.557007	11.052217	0	#	C
953	1	195.684006	9.824192	0	#	C
954	1	194.975006	11.052217	0	#	C
955	1	197.102005	9.824192	0	#	C